# vtk DataFile Version 2.0
vector_example
ASCII
DATASET UNSTRUCTURED_GRID

POINTS 231 float
0 0 0
0.05 0 0
0.1 0 0
0.15 0 0
0.2 0 0
0.25 0 0
0.3 0 0
0.35 0 0
0.4 0 0
0.45 0 0
0.5 0 0
0.55 0 0
0.6 0 0
0.65 0 0
0.7 0 0
0.75 0 0
0.8 0 0
0.85 0 0
0.9 0 0
0.95 0 0
1 0 0
0 0.1 0
0.05 0.1 0
0.1 0.1 0
0.15 0.1 0
0.2 0.1 0
0.25 0.1 0
0.3 0.1 0
0.35 0.1 0
0.4 0.1 0
0.45 0.1 0
0.5 0.1 0
0.55 0.1 0
0.6 0.1 0
0.65 0.1 0
0.7 0.1 0
0.75 0.1 0
0.8 0.1 0
0.85 0.1 0
0.9 0.1 0
0.95 0.1 0
1 0.1 0
0 0.2 0
0.05 0.2 0
0.1 0.2 0
0.15 0.2 0
0.2 0.2 0
0.25 0.2 0
0.3 0.2 0
0.35 0.2 0
0.4 0.2 0
0.45 0.2 0
0.5 0.2 0
0.55 0.2 0
0.6 0.2 0
0.65 0.2 0
0.7 0.2 0
0.75 0.2 0
0.8 0.2 0
0.85 0.2 0
0.9 0.2 0
0.95 0.2 0
1 0.2 0
0 0.3 0
0.05 0.3 0
0.1 0.3 0
0.15 0.3 0
0.2 0.3 0
0.25 0.3 0
0.3 0.3 0
0.35 0.3 0
0.4 0.3 0
0.45 0.3 0
0.5 0.3 0
0.55 0.3 0
0.6 0.3 0
0.65 0.3 0
0.7 0.3 0
0.75 0.3 0
0.8 0.3 0
0.85 0.3 0
0.9 0.3 0
0.95 0.3 0
1 0.3 0
0 0.4 0
0.05 0.4 0
0.1 0.4 0
0.15 0.4 0
0.2 0.4 0
0.25 0.4 0
0.3 0.4 0
0.35 0.4 0
0.4 0.4 0
0.45 0.4 0
0.5 0.4 0
0.55 0.4 0
0.6 0.4 0
0.65 0.4 0
0.7 0.4 0
0.75 0.4 0
0.8 0.4 0
0.85 0.4 0
0.9 0.4 0
0.95 0.4 0
1 0.4 0
0 0.5 0
0.05 0.5 0
0.1 0.5 0
0.15 0.5 0
0.2 0.5 0
0.25 0.5 0
0.3 0.5 0
0.35 0.5 0
0.4 0.5 0
0.45 0.5 0
0.5 0.5 0
0.55 0.5 0
0.6 0.5 0
0.65 0.5 0
0.7 0.5 0
0.75 0.5 0
0.8 0.5 0
0.85 0.5 0
0.9 0.5 0
0.95 0.5 0
1 0.5 0
0 0.6 0
0.05 0.6 0
0.1 0.6 0
0.15 0.6 0
0.2 0.6 0
0.25 0.6 0
0.3 0.6 0
0.35 0.6 0
0.4 0.6 0
0.45 0.6 0
0.5 0.6 0
0.55 0.6 0
0.6 0.6 0
0.65 0.6 0
0.7 0.6 0
0.75 0.6 0
0.8 0.6 0
0.85 0.6 0
0.9 0.6 0
0.95 0.6 0
1 0.6 0
0 0.7 0
0.05 0.7 0
0.1 0.7 0
0.15 0.7 0
0.2 0.7 0
0.25 0.7 0
0.3 0.7 0
0.35 0.7 0
0.4 0.7 0
0.45 0.7 0
0.5 0.7 0
0.55 0.7 0
0.6 0.7 0
0.65 0.7 0
0.7 0.7 0
0.75 0.7 0
0.8 0.7 0
0.85 0.7 0
0.9 0.7 0
0.95 0.7 0
1 0.7 0
0 0.8 0
0.05 0.8 0
0.1 0.8 0
0.15 0.8 0
0.2 0.8 0
0.25 0.8 0
0.3 0.8 0
0.35 0.8 0
0.4 0.8 0
0.45 0.8 0
0.5 0.8 0
0.55 0.8 0
0.6 0.8 0
0.65 0.8 0
0.7 0.8 0
0.75 0.8 0
0.8 0.8 0
0.85 0.8 0
0.9 0.8 0
0.95 0.8 0
1 0.8 0
0 0.9 0
0.05 0.9 0
0.1 0.9 0
0.15 0.9 0
0.2 0.9 0
0.25 0.9 0
0.3 0.9 0
0.35 0.9 0
0.4 0.9 0
0.45 0.9 0
0.5 0.9 0
0.55 0.9 0
0.6 0.9 0
0.65 0.9 0
0.7 0.9 0
0.75 0.9 0
0.8 0.9 0
0.85 0.9 0
0.9 0.9 0
0.95 0.9 0
1 0.9 0
0 1 0
0.05 1 0
0.1 1 0
0.15 1 0
0.2 1 0
0.25 1 0
0.3 1 0
0.35 1 0
0.4 1 0
0.45 1 0
0.5 1 0
0.55 1 0
0.6 1 0
0.65 1 0
0.7 1 0
0.75 1 0
0.8 1 0
0.85 1 0
0.9 1 0
0.95 1 0
1 1 0

CELLS 400 1600
3 0 1 22
3 0 22 21
3 1 2 23
3 1 23 22
3 2 3 24
3 2 24 23
3 3 4 25
3 3 25 24
3 4 5 26
3 4 26 25
3 5 6 27
3 5 27 26
3 6 7 28
3 6 28 27
3 7 8 29
3 7 29 28
3 8 9 30
3 8 30 29
3 9 10 31
3 9 31 30
3 10 11 32
3 10 32 31
3 11 12 33
3 11 33 32
3 12 13 34
3 12 34 33
3 13 14 35
3 13 35 34
3 14 15 36
3 14 36 35
3 15 16 37
3 15 37 36
3 16 17 38
3 16 38 37
3 17 18 39
3 17 39 38
3 18 19 40
3 18 40 39
3 19 20 41
3 19 41 40
3 21 22 43
3 21 43 42
3 22 23 44
3 22 44 43
3 23 24 45
3 23 45 44
3 24 25 46
3 24 46 45
3 25 26 47
3 25 47 46
3 26 27 48
3 26 48 47
3 27 28 49
3 27 49 48
3 28 29 50
3 28 50 49
3 29 30 51
3 29 51 50
3 30 31 52
3 30 52 51
3 31 32 53
3 31 53 52
3 32 33 54
3 32 54 53
3 33 34 55
3 33 55 54
3 34 35 56
3 34 56 55
3 35 36 57
3 35 57 56
3 36 37 58
3 36 58 57
3 37 38 59
3 37 59 58
3 38 39 60
3 38 60 59
3 39 40 61
3 39 61 60
3 40 41 62
3 40 62 61
3 42 43 64
3 42 64 63
3 43 44 65
3 43 65 64
3 44 45 66
3 44 66 65
3 45 46 67
3 45 67 66
3 46 47 68
3 46 68 67
3 47 48 69
3 47 69 68
3 48 49 70
3 48 70 69
3 49 50 71
3 49 71 70
3 50 51 72
3 50 72 71
3 51 52 73
3 51 73 72
3 52 53 74
3 52 74 73
3 53 54 75
3 53 75 74
3 54 55 76
3 54 76 75
3 55 56 77
3 55 77 76
3 56 57 78
3 56 78 77
3 57 58 79
3 57 79 78
3 58 59 80
3 58 80 79
3 59 60 81
3 59 81 80
3 60 61 82
3 60 82 81
3 61 62 83
3 61 83 82
3 63 64 85
3 63 85 84
3 64 65 86
3 64 86 85
3 65 66 87
3 65 87 86
3 66 67 88
3 66 88 87
3 67 68 89
3 67 89 88
3 68 69 90
3 68 90 89
3 69 70 91
3 69 91 90
3 70 71 92
3 70 92 91
3 71 72 93
3 71 93 92
3 72 73 94
3 72 94 93
3 73 74 95
3 73 95 94
3 74 75 96
3 74 96 95
3 75 76 97
3 75 97 96
3 76 77 98
3 76 98 97
3 77 78 99
3 77 99 98
3 78 79 100
3 78 100 99
3 79 80 101
3 79 101 100
3 80 81 102
3 80 102 101
3 81 82 103
3 81 103 102
3 82 83 104
3 82 104 103
3 84 85 106
3 84 106 105
3 85 86 107
3 85 107 106
3 86 87 108
3 86 108 107
3 87 88 109
3 87 109 108
3 88 89 110
3 88 110 109
3 89 90 111
3 89 111 110
3 90 91 112
3 90 112 111
3 91 92 113
3 91 113 112
3 92 93 114
3 92 114 113
3 93 94 115
3 93 115 114
3 94 95 116
3 94 116 115
3 95 96 117
3 95 117 116
3 96 97 118
3 96 118 117
3 97 98 119
3 97 119 118
3 98 99 120
3 98 120 119
3 99 100 121
3 99 121 120
3 100 101 122
3 100 122 121
3 101 102 123
3 101 123 122
3 102 103 124
3 102 124 123
3 103 104 125
3 103 125 124
3 105 106 127
3 105 127 126
3 106 107 128
3 106 128 127
3 107 108 129
3 107 129 128
3 108 109 130
3 108 130 129
3 109 110 131
3 109 131 130
3 110 111 132
3 110 132 131
3 111 112 133
3 111 133 132
3 112 113 134
3 112 134 133
3 113 114 135
3 113 135 134
3 114 115 136
3 114 136 135
3 115 116 137
3 115 137 136
3 116 117 138
3 116 138 137
3 117 118 139
3 117 139 138
3 118 119 140
3 118 140 139
3 119 120 141
3 119 141 140
3 120 121 142
3 120 142 141
3 121 122 143
3 121 143 142
3 122 123 144
3 122 144 143
3 123 124 145
3 123 145 144
3 124 125 146
3 124 146 145
3 126 127 148
3 126 148 147
3 127 128 149
3 127 149 148
3 128 129 150
3 128 150 149
3 129 130 151
3 129 151 150
3 130 131 152
3 130 152 151
3 131 132 153
3 131 153 152
3 132 133 154
3 132 154 153
3 133 134 155
3 133 155 154
3 134 135 156
3 134 156 155
3 135 136 157
3 135 157 156
3 136 137 158
3 136 158 157
3 137 138 159
3 137 159 158
3 138 139 160
3 138 160 159
3 139 140 161
3 139 161 160
3 140 141 162
3 140 162 161
3 141 142 163
3 141 163 162
3 142 143 164
3 142 164 163
3 143 144 165
3 143 165 164
3 144 145 166
3 144 166 165
3 145 146 167
3 145 167 166
3 147 148 169
3 147 169 168
3 148 149 170
3 148 170 169
3 149 150 171
3 149 171 170
3 150 151 172
3 150 172 171
3 151 152 173
3 151 173 172
3 152 153 174
3 152 174 173
3 153 154 175
3 153 175 174
3 154 155 176
3 154 176 175
3 155 156 177
3 155 177 176
3 156 157 178
3 156 178 177
3 157 158 179
3 157 179 178
3 158 159 180
3 158 180 179
3 159 160 181
3 159 181 180
3 160 161 182
3 160 182 181
3 161 162 183
3 161 183 182
3 162 163 184
3 162 184 183
3 163 164 185
3 163 185 184
3 164 165 186
3 164 186 185
3 165 166 187
3 165 187 186
3 166 167 188
3 166 188 187
3 168 169 190
3 168 190 189
3 169 170 191
3 169 191 190
3 170 171 192
3 170 192 191
3 171 172 193
3 171 193 192
3 172 173 194
3 172 194 193
3 173 174 195
3 173 195 194
3 174 175 196
3 174 196 195
3 175 176 197
3 175 197 196
3 176 177 198
3 176 198 197
3 177 178 199
3 177 199 198
3 178 179 200
3 178 200 199
3 179 180 201
3 179 201 200
3 180 181 202
3 180 202 201
3 181 182 203
3 181 203 202
3 182 183 204
3 182 204 203
3 183 184 205
3 183 205 204
3 184 185 206
3 184 206 205
3 185 186 207
3 185 207 206
3 186 187 208
3 186 208 207
3 187 188 209
3 187 209 208
3 189 190 211
3 189 211 210
3 190 191 212
3 190 212 211
3 191 192 213
3 191 213 212
3 192 193 214
3 192 214 213
3 193 194 215
3 193 215 214
3 194 195 216
3 194 216 215
3 195 196 217
3 195 217 216
3 196 197 218
3 196 218 217
3 197 198 219
3 197 219 218
3 198 199 220
3 198 220 219
3 199 200 221
3 199 221 220
3 200 201 222
3 200 222 221
3 201 202 223
3 201 223 222
3 202 203 224
3 202 224 223
3 203 204 225
3 203 225 224
3 204 205 226
3 204 226 225
3 205 206 227
3 205 227 226
3 206 207 228
3 206 228 227
3 207 208 229
3 207 229 228
3 208 209 230
3 208 230 229

CELL_TYPES 400
5
5
5
5
5
5
5
5
5
5
5
5
5
5
5
5
5
5
5
5
5
5
5
5
5
5
5
5
5
5
5
5
5
5
5
5
5
5
5
5
5
5
5
5
5
5
5
5
5
5
5
5
5
5
5
5
5
5
5
5
5
5
5
5
5
5
5
5
5
5
5
5
5
5
5
5
5
5
5
5
5
5
5
5
5
5
5
5
5
5
5
5
5
5
5
5
5
5
5
5
5
5
5
5
5
5
5
5
5
5
5
5
5
5
5
5
5
5
5
5
5
5
5
5
5
5
5
5
5
5
5
5
5
5
5
5
5
5
5
5
5
5
5
5
5
5
5
5
5
5
5
5
5
5
5
5
5
5
5
5
5
5
5
5
5
5
5
5
5
5
5
5
5
5
5
5
5
5
5
5
5
5
5
5
5
5
5
5
5
5
5
5
5
5
5
5
5
5
5
5
5
5
5
5
5
5
5
5
5
5
5
5
5
5
5
5
5
5
5
5
5
5
5
5
5
5
5
5
5
5
5
5
5
5
5
5
5
5
5
5
5
5
5
5
5
5
5
5
5
5
5
5
5
5
5
5
5
5
5
5
5
5
5
5
5
5
5
5
5
5
5
5
5
5
5
5
5
5
5
5
5
5
5
5
5
5
5
5
5
5
5
5
5
5
5
5
5
5
5
5
5
5
5
5
5
5
5
5
5
5
5
5
5
5
5
5
5
5
5
5
5
5
5
5
5
5
5
5
5
5
5
5
5
5
5
5
5
5
5
5
5
5
5
5
5
5
5
5
5
5
5
5
5
5
5
5
5
5
5
5
5
5
5
5
5
5
5
5
5
5
5
5
5
5
5
5
5
5
5
5
5
5
5
5
5
5
5
5
5
5
5
5
5
5
5
5
5
5
5
5

POINT_DATA 231
VECTORS vector_example float
0 0 0
0.0025 0.156434 0
0.01 0.309017 0
0.0225 0.45399 0
0.04 0.587785 0
0.0625 0.707107 0
0.09 0.809017 0
0.1225 0.891007 0
0.16 0.951057 0
0.2025 0.987688 0
0.25 1 0
0.3025 0.987688 0
0.36 0.951057 0
0.4225 0.891007 0
0.49 0.809017 0
0.5625 0.707107 0
0.64 0.587785 0
0.7225 0.45399 0
0.81 0.309017 0
0.9025 0.156434 0
1 1.22465e-16 0
0.01 0 0
0.0125 0.156434 0
0.02 0.309017 0
0.0325 0.45399 0
0.05 0.587785 0
0.0725 0.707107 0
0.1 0.809017 0
0.1325 0.891007 0
0.17 0.951057 0
0.2125 0.987688 0
0.26 1 0
0.3125 0.987688 0
0.37 0.951057 0
0.4325 0.891007 0
0.5 0.809017 0
0.5725 0.707107 0
0.65 0.587785 0
0.7325 0.45399 0
0.82 0.309017 0
0.9125 0.156434 0
1.01 1.22465e-16 0
0.04 0 0
0.0425 0.156434 0
0.05 0.309017 0
0.0625 0.45399 0
0.08 0.587785 0
0.1025 0.707107 0
0.13 0.809017 0
0.1625 0.891007 0
0.2 0.951057 0
0.2425 0.987688 0
0.29 1 0
0.3425 0.987688 0
0.4 0.951057 0
0.4625 0.891007 0
0.53 0.809017 0
0.6025 0.707107 0
0.68 0.587785 0
0.7625 0.45399 0
0.85 0.309017 0
0.9425 0.156434 0
1.04 1.22465e-16 0
0.09 0 0
0.0925 0.156434 0
0.1 0.309017 0
0.1125 0.45399 0
0.13 0.587785 0
0.1525 0.707107 0
0.18 0.809017 0
0.2125 0.891007 0
0.25 0.951057 0
0.2925 0.987688 0
0.34 1 0
0.3925 0.987688 0
0.45 0.951057 0
0.5125 0.891007 0
0.58 0.809017 0
0.6525 0.707107 0
0.73 0.587785 0
0.8125 0.45399 0
0.9 0.309017 0
0.9925 0.156434 0
1.09 1.22465e-16 0
0.16 0 0
0.1625 0.156434 0
0.17 0.309017 0
0.1825 0.45399 0
0.2 0.587785 0
0.2225 0.707107 0
0.25 0.809017 0
0.2825 0.891007 0
0.32 0.951057 0
0.3625 0.987688 0
0.41 1 0
0.4625 0.987688 0
0.52 0.951057 0
0.5825 0.891007 0
0.65 0.809017 0
0.7225 0.707107 0
0.8 0.587785 0
0.8825 0.45399 0
0.97 0.309017 0
1.0625 0.156434 0
1.16 1.22465e-16 0
0.25 0 0
0.2525 0.156434 0
0.26 0.309017 0
0.2725 0.45399 0
0.29 0.587785 0
0.3125 0.707107 0
0.34 0.809017 0
0.3725 0.891007 0
0.41 0.951057 0
0.4525 0.987688 0
0.5 1 0
0.5525 0.987688 0
0.61 0.951057 0
0.6725 0.891007 0
0.74 0.809017 0
0.8125 0.707107 0
0.89 0.587785 0
0.9725 0.45399 0
1.06 0.309017 0
1.1525 0.156434 0
1.25 1.22465e-16 0
0.36 0 0
0.3625 0.156434 0
0.37 0.309017 0
0.3825 0.45399 0
0.4 0.587785 0
0.4225 0.707107 0
0.45 0.809017 0
0.4825 0.891007 0
0.52 0.951057 0
0.5625 0.987688 0
0.61 1 0
0.6625 0.987688 0
0.72 0.951057 0
0.7825 0.891007 0
0.85 0.809017 0
0.9225 0.707107 0
1 0.587785 0
1.0825 0.45399 0
1.17 0.309017 0
1.2625 0.156434 0
1.36 1.22465e-16 0
0.49 0 0
0.4925 0.156434 0
0.5 0.309017 0
0.5125 0.45399 0
0.53 0.587785 0
0.5525 0.707107 0
0.58 0.809017 0
0.6125 0.891007 0
0.65 0.951057 0
0.6925 0.987688 0
0.74 1 0
0.7925 0.987688 0
0.85 0.951057 0
0.9125 0.891007 0
0.98 0.809017 0
1.0525 0.707107 0
1.13 0.587785 0
1.2125 0.45399 0
1.3 0.309017 0
1.3925 0.156434 0
1.49 1.22465e-16 0
0.64 0 0
0.6425 0.156434 0
0.65 0.309017 0
0.6625 0.45399 0
0.68 0.587785 0
0.7025 0.707107 0
0.73 0.809017 0
0.7625 0.891007 0
0.8 0.951057 0
0.8425 0.987688 0
0.89 1 0
0.9425 0.987688 0
1 0.951057 0
1.0625 0.891007 0
1.13 0.809017 0
1.2025 0.707107 0
1.28 0.587785 0
1.3625 0.45399 0
1.45 0.309017 0
1.5425 0.156434 0
1.64 1.22465e-16 0
0.81 0 0
0.8125 0.156434 0
0.82 0.309017 0
0.8325 0.45399 0
0.85 0.587785 0
0.8725 0.707107 0
0.9 0.809017 0
0.9325 0.891007 0
0.97 0.951057 0
1.0125 0.987688 0
1.06 1 0
1.1125 0.987688 0
1.17 0.951057 0
1.2325 0.891007 0
1.3 0.809017 0
1.3725 0.707107 0
1.45 0.587785 0
1.5325 0.45399 0
1.62 0.309017 0
1.7125 0.156434 0
1.81 1.22465e-16 0
1 0 0
1.0025 0.156434 0
1.01 0.309017 0
1.0225 0.45399 0
1.04 0.587785 0
1.0625 0.707107 0
1.09 0.809017 0
1.1225 0.891007 0
1.16 0.951057 0
1.2025 0.987688 0
1.25 1 0
1.3025 0.987688 0
1.36 0.951057 0
1.4225 0.891007 0
1.49 0.809017 0
1.5625 0.707107 0
1.64 0.587785 0
1.7225 0.45399 0
1.81 0.309017 0
1.9025 0.156434 0
2 1.22465e-16 0
